<?xml version="1.0" encoding="UTF-8"?>

<!-- generated on 2022-04-29 16:20:45 by Eclipse SUMO GUI Version 1.12.0
<configuration xmlns:xsi="http://www.w3.org/2001/XMLSchema-instance" xsi:noNamespaceSchemaLocation="http://sumo.dlr.de/xsd/sumoConfiguration.xsd">

    <input>
        <net-file value="data/4legs_iCACC.net.xml"/>
        <route-files value="data/cross.rou.xml"/>
    </input>

    <output>
        <tripinfo-output value="tripinfo.xml"/>
    </output>

    <time>
        <begin value="0"/>
        <end value="40000"/>
        <step-length value="0.1"/>
    </time>

    <processing>
        <collision.check-junctions value="true"/>
        <time-to-teleport value="-1"/>
        <default.action-step-length value="0.1"/>
    </processing>

    <traci_server>
        <remote-port value="65288"/>
    </traci_server>

    <gui_only>
        <tracker-interval value="0.1"/>
    </gui_only>

</configuration>
-->

<tripinfos xmlns:xsi="http://www.w3.org/2001/XMLSchema-instance" xsi:noNamespaceSchemaLocation="http://sumo.dlr.de/xsd/tripinfo_file.xsd">
    <tripinfo id="SE_0" depart="0.00" departLane="L5_0" departPos="5.10" departSpeed="15.00" departDelay="0.00" arrival="19.90" arrivalLane="L12_0" arrivalPos="50.00" arrivalSpeed="15.00" duration="19.90" routeLength="297.92" waitingTime="0.00" waitingCount="0" stopTime="0.00" timeLoss="-0.54" rerouteNo="0" devices="tripinfo_SE_0" vType="VehicleA" speedFactor="1.00" vaporized=""/>
    <tripinfo id="NW_10" depart="1.00" departLane="L13_0" departPos="5.10" departSpeed="15.00" departDelay="0.00" arrival="20.90" arrivalLane="L4_0" arrivalPos="50.00" arrivalSpeed="15.00" duration="19.90" routeLength="297.92" waitingTime="0.00" waitingCount="0" stopTime="0.00" timeLoss="-0.54" rerouteNo="0" devices="tripinfo_NW_10" vType="VehicleA" speedFactor="1.00" vaporized=""/>
    <tripinfo id="WN_0" depart="0.00" departLane="L1_2" departPos="5.10" departSpeed="15.00" departDelay="0.00" arrival="21.00" arrivalLane="L16_2" arrivalPos="50.00" arrivalSpeed="15.00" duration="21.00" routeLength="314.86" waitingTime="0.00" waitingCount="0" stopTime="0.00" timeLoss="-0.78" rerouteNo="0" devices="tripinfo_WN_0" vType="VehicleA" speedFactor="1.00" vaporized=""/>
    <tripinfo id="NS_10" depart="1.00" departLane="L13_1" departPos="5.10" departSpeed="15.00" departDelay="0.00" arrival="22.10" arrivalLane="L8_1" arrivalPos="50.00" arrivalSpeed="15.00" duration="21.10" routeLength="316.10" waitingTime="0.00" waitingCount="0" stopTime="0.00" timeLoss="0.00" rerouteNo="0" devices="tripinfo_NS_10" vType="VehicleA" speedFactor="1.00" vaporized=""/>
    <tripinfo id="WS_30" depart="3.00" departLane="L1_0" departPos="5.10" departSpeed="15.00" departDelay="0.00" arrival="22.90" arrivalLane="L8_0" arrivalPos="50.00" arrivalSpeed="15.00" duration="19.90" routeLength="297.92" waitingTime="0.00" waitingCount="0" stopTime="0.00" timeLoss="-0.54" rerouteNo="0" devices="tripinfo_WS_30" vType="VehicleA" speedFactor="1.00" vaporized=""/>
    <tripinfo id="NW_30" depart="3.00" departLane="L13_0" departPos="5.10" departSpeed="15.00" departDelay="0.00" arrival="22.90" arrivalLane="L4_0" arrivalPos="50.00" arrivalSpeed="15.00" duration="19.90" routeLength="297.92" waitingTime="0.00" waitingCount="0" stopTime="0.00" timeLoss="-0.54" rerouteNo="0" devices="tripinfo_NW_30" vType="VehicleA" speedFactor="1.00" vaporized=""/>
    <tripinfo id="NS_20" depart="2.00" departLane="L13_1" departPos="5.10" departSpeed="15.00" departDelay="0.00" arrival="23.10" arrivalLane="L8_1" arrivalPos="50.00" arrivalSpeed="15.00" duration="21.10" routeLength="316.10" waitingTime="0.00" waitingCount="0" stopTime="0.00" timeLoss="0.00" rerouteNo="0" devices="tripinfo_NS_20" vType="VehicleA" speedFactor="1.00" vaporized=""/>
    <tripinfo id="NS_40" depart="4.60" departLane="L13_1" departPos="5.10" departSpeed="15.00" departDelay="0.00" arrival="25.70" arrivalLane="L8_1" arrivalPos="50.00" arrivalSpeed="15.00" duration="21.10" routeLength="316.10" waitingTime="0.00" waitingCount="0" stopTime="0.00" timeLoss="0.00" rerouteNo="0" devices="tripinfo_NS_40" vType="VehicleA" speedFactor="1.00" vaporized=""/>
    <tripinfo id="EW_40" depart="4.90" departLane="L9_1" departPos="5.10" departSpeed="15.00" departDelay="0.00" arrival="26.00" arrivalLane="L4_1" arrivalPos="50.00" arrivalSpeed="15.00" duration="21.10" routeLength="316.10" waitingTime="0.00" waitingCount="0" stopTime="0.00" timeLoss="0.00" rerouteNo="0" devices="tripinfo_EW_40" vType="VehicleA" speedFactor="1.00" vaporized=""/>
    <tripinfo id="EW_50" depart="5.80" departLane="L9_1" departPos="5.10" departSpeed="15.00" departDelay="0.00" arrival="26.90" arrivalLane="L4_1" arrivalPos="50.00" arrivalSpeed="15.00" duration="21.10" routeLength="316.10" waitingTime="0.00" waitingCount="0" stopTime="0.00" timeLoss="0.00" rerouteNo="0" devices="tripinfo_EW_50" vType="VehicleA" speedFactor="1.00" vaporized=""/>
    <tripinfo id="ES_40" depart="6.00" departLane="L9_2" departPos="5.10" departSpeed="15.00" departDelay="0.00" arrival="27.00" arrivalLane="L8_2" arrivalPos="50.00" arrivalSpeed="15.00" duration="21.00" routeLength="314.86" waitingTime="0.00" waitingCount="0" stopTime="0.00" timeLoss="-0.78" rerouteNo="0" devices="tripinfo_ES_40" vType="VehicleA" speedFactor="1.00" vaporized=""/>
    <tripinfo id="ES_50" depart="6.60" departLane="L9_2" departPos="5.10" departSpeed="15.00" departDelay="0.00" arrival="27.60" arrivalLane="L8_2" arrivalPos="50.00" arrivalSpeed="15.00" duration="21.00" routeLength="314.86" waitingTime="0.00" waitingCount="0" stopTime="0.00" timeLoss="-0.78" rerouteNo="0" devices="tripinfo_ES_50" vType="VehicleA" speedFactor="1.00" vaporized=""/>
    <tripinfo id="SN_100" depart="10.00" departLane="L5_1" departPos="5.10" departSpeed="15.00" departDelay="0.00" arrival="31.10" arrivalLane="L16_1" arrivalPos="50.00" arrivalSpeed="15.00" duration="21.10" routeLength="316.10" waitingTime="0.00" waitingCount="0" stopTime="0.00" timeLoss="0.00" rerouteNo="0" devices="tripinfo_SN_100" vType="VehicleA" speedFactor="1.00" vaporized=""/>
    <tripinfo id="EW_110" depart="11.30" departLane="L9_1" departPos="5.10" departSpeed="15.00" departDelay="0.00" arrival="32.40" arrivalLane="L4_1" arrivalPos="50.00" arrivalSpeed="15.00" duration="21.10" routeLength="316.10" waitingTime="0.00" waitingCount="0" stopTime="0.00" timeLoss="0.00" rerouteNo="0" devices="tripinfo_EW_110" vType="VehicleA" speedFactor="1.00" vaporized=""/>
    <tripinfo id="SE_130" depart="13.00" departLane="L5_0" departPos="5.10" departSpeed="15.00" departDelay="0.00" arrival="32.90" arrivalLane="L12_0" arrivalPos="50.00" arrivalSpeed="15.00" duration="19.90" routeLength="297.92" waitingTime="0.00" waitingCount="0" stopTime="0.00" timeLoss="-0.54" rerouteNo="0" devices="tripinfo_SE_130" vType="VehicleA" speedFactor="1.00" vaporized=""/>
    <tripinfo id="WE_130" depart="13.00" departLane="L1_1" departPos="5.10" departSpeed="15.00" departDelay="0.00" arrival="34.10" arrivalLane="L12_1" arrivalPos="50.00" arrivalSpeed="15.00" duration="21.10" routeLength="316.10" waitingTime="0.00" waitingCount="0" stopTime="0.00" timeLoss="0.00" rerouteNo="0" devices="tripinfo_WE_130" vType="VehicleA" speedFactor="1.00" vaporized=""/>
    <tripinfo id="EN_150" depart="15.00" departLane="L9_0" departPos="5.10" departSpeed="15.00" departDelay="0.00" arrival="34.90" arrivalLane="L16_0" arrivalPos="50.00" arrivalSpeed="15.00" duration="19.90" routeLength="297.92" waitingTime="0.00" waitingCount="0" stopTime="0.00" timeLoss="-0.54" rerouteNo="0" devices="tripinfo_EN_150" vType="VehicleA" speedFactor="1.00" vaporized=""/>
    <tripinfo id="NS_140" depart="14.00" departLane="L13_1" departPos="5.10" departSpeed="15.00" departDelay="0.00" arrival="35.10" arrivalLane="L8_1" arrivalPos="50.00" arrivalSpeed="15.00" duration="21.10" routeLength="316.10" waitingTime="0.00" waitingCount="0" stopTime="0.00" timeLoss="0.00" rerouteNo="0" devices="tripinfo_NS_140" vType="VehicleA" speedFactor="1.00" vaporized=""/>
    <tripinfo id="NE_150" depart="15.20" departLane="L13_2" departPos="5.10" departSpeed="15.00" departDelay="0.00" arrival="36.20" arrivalLane="L12_2" arrivalPos="50.00" arrivalSpeed="15.00" duration="21.00" routeLength="314.86" waitingTime="0.00" waitingCount="0" stopTime="0.00" timeLoss="-0.78" rerouteNo="0" devices="tripinfo_NE_150" vType="VehicleA" speedFactor="1.00" vaporized=""/>
    <tripinfo id="EW_150" depart="15.70" departLane="L9_1" departPos="5.10" departSpeed="15.00" departDelay="0.00" arrival="36.80" arrivalLane="L4_1" arrivalPos="50.00" arrivalSpeed="15.00" duration="21.10" routeLength="316.10" waitingTime="0.00" waitingCount="0" stopTime="0.00" timeLoss="0.00" rerouteNo="0" devices="tripinfo_EW_150" vType="VehicleA" speedFactor="1.00" vaporized=""/>
    <tripinfo id="EN_170" depart="17.00" departLane="L9_0" departPos="5.10" departSpeed="15.00" departDelay="0.00" arrival="36.90" arrivalLane="L16_0" arrivalPos="50.00" arrivalSpeed="15.00" duration="19.90" routeLength="297.92" waitingTime="0.00" waitingCount="0" stopTime="0.00" timeLoss="-0.54" rerouteNo="0" devices="tripinfo_EN_170" vType="VehicleA" speedFactor="1.00" vaporized=""/>
    <tripinfo id="EW_160" depart="16.30" departLane="L9_1" departPos="5.10" departSpeed="15.00" departDelay="0.00" arrival="37.40" arrivalLane="L4_1" arrivalPos="50.00" arrivalSpeed="15.00" duration="21.10" routeLength="316.10" waitingTime="0.00" waitingCount="0" stopTime="0.00" timeLoss="0.00" rerouteNo="0" devices="tripinfo_EW_160" vType="VehicleA" speedFactor="1.00" vaporized=""/>
    <tripinfo id="SW_170" depart="17.30" departLane="L5_2" departPos="5.10" departSpeed="15.00" departDelay="0.00" arrival="38.30" arrivalLane="L4_2" arrivalPos="50.00" arrivalSpeed="15.00" duration="21.00" routeLength="314.86" waitingTime="0.00" waitingCount="0" stopTime="0.00" timeLoss="-0.78" rerouteNo="0" devices="tripinfo_SW_170" vType="VehicleA" speedFactor="1.00" vaporized=""/>
    <tripinfo id="NE_170" depart="17.90" departLane="L13_2" departPos="5.10" departSpeed="15.00" departDelay="0.00" arrival="38.90" arrivalLane="L12_2" arrivalPos="50.00" arrivalSpeed="15.00" duration="21.00" routeLength="314.86" waitingTime="0.00" waitingCount="0" stopTime="0.00" timeLoss="-0.78" rerouteNo="0" devices="tripinfo_NE_170" vType="VehicleA" speedFactor="1.00" vaporized=""/>
    <tripinfo id="EN_190" depart="19.00" departLane="L9_0" departPos="5.10" departSpeed="15.00" departDelay="0.00" arrival="38.90" arrivalLane="L16_0" arrivalPos="50.00" arrivalSpeed="15.00" duration="19.90" routeLength="297.92" waitingTime="0.00" waitingCount="0" stopTime="0.00" timeLoss="-0.54" rerouteNo="0" devices="tripinfo_EN_190" vType="VehicleA" speedFactor="1.00" vaporized=""/>
    <tripinfo id="EW_170" depart="18.70" departLane="L9_1" departPos="5.10" departSpeed="15.00" departDelay="0.00" arrival="39.80" arrivalLane="L4_1" arrivalPos="50.00" arrivalSpeed="15.00" duration="21.10" routeLength="316.10" waitingTime="0.00" waitingCount="0" stopTime="0.00" timeLoss="0.00" rerouteNo="0" devices="tripinfo_EW_170" vType="VehicleA" speedFactor="1.00" vaporized=""/>
    <tripinfo id="NW_210" depart="21.00" departLane="L13_0" departPos="5.10" departSpeed="15.00" departDelay="0.00" arrival="40.90" arrivalLane="L4_0" arrivalPos="50.00" arrivalSpeed="15.00" duration="19.90" routeLength="297.92" waitingTime="0.00" waitingCount="0" stopTime="0.00" timeLoss="-0.54" rerouteNo="0" devices="tripinfo_NW_210" vType="VehicleA" speedFactor="1.00" vaporized=""/>
    <tripinfo id="NS_190" depart="20.00" departLane="L13_1" departPos="5.10" departSpeed="15.00" departDelay="0.00" arrival="41.10" arrivalLane="L8_1" arrivalPos="50.00" arrivalSpeed="15.00" duration="21.10" routeLength="316.10" waitingTime="0.00" waitingCount="0" stopTime="0.00" timeLoss="0.00" rerouteNo="0" devices="tripinfo_NS_190" vType="VehicleA" speedFactor="1.00" vaporized=""/>
    <tripinfo id="SN_200" depart="20.00" departLane="L5_1" departPos="5.10" departSpeed="15.00" departDelay="0.00" arrival="41.10" arrivalLane="L16_1" arrivalPos="50.00" arrivalSpeed="15.00" duration="21.10" routeLength="316.10" waitingTime="0.00" waitingCount="0" stopTime="0.00" timeLoss="0.00" rerouteNo="0" devices="tripinfo_SN_200" vType="VehicleA" speedFactor="1.00" vaporized=""/>
    <tripinfo id="EW_200" depart="20.10" departLane="L9_1" departPos="5.10" departSpeed="15.00" departDelay="0.00" arrival="41.20" arrivalLane="L4_1" arrivalPos="50.00" arrivalSpeed="15.00" duration="21.10" routeLength="316.10" waitingTime="0.00" waitingCount="0" stopTime="0.00" timeLoss="0.00" rerouteNo="0" devices="tripinfo_EW_200" vType="VehicleA" speedFactor="1.00" vaporized=""/>
    <tripinfo id="WE_210" depart="21.30" departLane="L1_1" departPos="5.10" departSpeed="15.00" departDelay="0.00" arrival="42.40" arrivalLane="L12_1" arrivalPos="50.00" arrivalSpeed="15.00" duration="21.10" routeLength="316.10" waitingTime="0.00" waitingCount="0" stopTime="0.00" timeLoss="0.00" rerouteNo="0" devices="tripinfo_WE_210" vType="VehicleA" speedFactor="1.00" vaporized=""/>
    <tripinfo id="NS_200" depart="21.80" departLane="L13_1" departPos="5.10" departSpeed="15.00" departDelay="0.00" arrival="42.90" arrivalLane="L8_1" arrivalPos="50.00" arrivalSpeed="15.00" duration="21.10" routeLength="316.10" waitingTime="0.00" waitingCount="0" stopTime="0.00" timeLoss="0.00" rerouteNo="0" devices="tripinfo_NS_200" vType="VehicleA" speedFactor="1.00" vaporized=""/>
    <tripinfo id="WS_240" depart="24.00" departLane="L1_0" departPos="5.10" departSpeed="15.00" departDelay="0.00" arrival="43.90" arrivalLane="L8_0" arrivalPos="50.00" arrivalSpeed="15.00" duration="19.90" routeLength="297.92" waitingTime="0.00" waitingCount="0" stopTime="0.00" timeLoss="-0.54" rerouteNo="0" devices="tripinfo_WS_240" vType="VehicleA" speedFactor="1.00" vaporized=""/>
    <tripinfo id="NW_240" depart="24.00" departLane="L13_0" departPos="5.10" departSpeed="15.00" departDelay="0.00" arrival="43.90" arrivalLane="L4_0" arrivalPos="50.00" arrivalSpeed="15.00" duration="19.90" routeLength="297.92" waitingTime="0.00" waitingCount="0" stopTime="0.00" timeLoss="-0.54" rerouteNo="0" devices="tripinfo_NW_240" vType="VehicleA" speedFactor="1.00" vaporized=""/>
    <tripinfo id="WE_260" depart="26.00" departLane="L1_1" departPos="5.10" departSpeed="15.00" departDelay="0.00" arrival="47.10" arrivalLane="L12_1" arrivalPos="50.00" arrivalSpeed="15.00" duration="21.10" routeLength="316.10" waitingTime="0.00" waitingCount="0" stopTime="0.00" timeLoss="0.00" rerouteNo="0" devices="tripinfo_WE_260" vType="VehicleA" speedFactor="1.00" vaporized=""/>
    <tripinfo id="EW_290" depart="29.00" departLane="L9_1" departPos="5.10" departSpeed="15.00" departDelay="0.00" arrival="50.10" arrivalLane="L4_1" arrivalPos="50.00" arrivalSpeed="15.00" duration="21.10" routeLength="316.10" waitingTime="0.00" waitingCount="0" stopTime="0.00" timeLoss="0.00" rerouteNo="0" devices="tripinfo_EW_290" vType="VehicleA" speedFactor="1.00" vaporized=""/>
    <tripinfo id="NE_300" depart="30.10" departLane="L13_2" departPos="5.10" departSpeed="15.00" departDelay="0.00" arrival="51.10" arrivalLane="L12_2" arrivalPos="50.00" arrivalSpeed="15.00" duration="21.00" routeLength="314.86" waitingTime="0.00" waitingCount="0" stopTime="0.00" timeLoss="-0.78" rerouteNo="0" devices="tripinfo_NE_300" vType="VehicleA" speedFactor="1.00" vaporized=""/>
    <tripinfo id="WE_300" depart="30.10" departLane="L1_1" departPos="5.10" departSpeed="15.00" departDelay="0.00" arrival="51.20" arrivalLane="L12_1" arrivalPos="50.00" arrivalSpeed="15.00" duration="21.10" routeLength="316.10" waitingTime="0.00" waitingCount="0" stopTime="0.00" timeLoss="0.00" rerouteNo="0" devices="tripinfo_WE_300" vType="VehicleA" speedFactor="1.00" vaporized=""/>
    <tripinfo id="NS_300" depart="31.00" departLane="L13_1" departPos="5.10" departSpeed="15.00" departDelay="0.00" arrival="52.10" arrivalLane="L8_1" arrivalPos="50.00" arrivalSpeed="15.00" duration="21.10" routeLength="316.10" waitingTime="0.00" waitingCount="0" stopTime="0.00" timeLoss="0.00" rerouteNo="0" devices="tripinfo_NS_300" vType="VehicleA" speedFactor="1.00" vaporized=""/>
    <tripinfo id="WE_310" depart="31.00" departLane="L1_1" departPos="5.10" departSpeed="15.00" departDelay="0.00" arrival="52.10" arrivalLane="L12_1" arrivalPos="50.00" arrivalSpeed="15.00" duration="21.10" routeLength="316.10" waitingTime="0.00" waitingCount="0" stopTime="0.00" timeLoss="0.00" rerouteNo="0" devices="tripinfo_WE_310" vType="VehicleA" speedFactor="1.00" vaporized=""/>
    <tripinfo id="EN_340" depart="34.00" departLane="L9_0" departPos="5.10" departSpeed="15.00" departDelay="0.00" arrival="53.90" arrivalLane="L16_0" arrivalPos="50.00" arrivalSpeed="15.00" duration="19.90" routeLength="297.92" waitingTime="0.00" waitingCount="0" stopTime="0.00" timeLoss="-0.54" rerouteNo="0" devices="tripinfo_EN_340" vType="VehicleA" speedFactor="1.00" vaporized=""/>
    <tripinfo id="SE_340" depart="34.00" departLane="L5_0" departPos="5.10" departSpeed="15.00" departDelay="0.00" arrival="53.90" arrivalLane="L12_0" arrivalPos="50.00" arrivalSpeed="15.00" duration="19.90" routeLength="297.92" waitingTime="0.00" waitingCount="0" stopTime="0.00" timeLoss="-0.54" rerouteNo="0" devices="tripinfo_SE_340" vType="VehicleA" speedFactor="1.00" vaporized=""/>
    <tripinfo id="NS_310" depart="32.90" departLane="L13_1" departPos="5.10" departSpeed="15.00" departDelay="0.00" arrival="54.00" arrivalLane="L8_1" arrivalPos="50.00" arrivalSpeed="15.00" duration="21.10" routeLength="316.10" waitingTime="0.00" waitingCount="0" stopTime="0.00" timeLoss="0.00" rerouteNo="0" devices="tripinfo_NS_310" vType="VehicleA" speedFactor="1.00" vaporized=""/>
    <tripinfo id="WN_310" depart="33.90" departLane="L1_2" departPos="5.10" departSpeed="15.00" departDelay="0.00" arrival="54.90" arrivalLane="L16_2" arrivalPos="50.00" arrivalSpeed="15.00" duration="21.00" routeLength="314.86" waitingTime="0.00" waitingCount="0" stopTime="0.00" timeLoss="-0.78" rerouteNo="0" devices="tripinfo_WN_310" vType="VehicleA" speedFactor="1.00" vaporized=""/>
    <tripinfo id="NS_320" depart="34.10" departLane="L13_1" departPos="5.10" departSpeed="15.00" departDelay="0.00" arrival="55.20" arrivalLane="L8_1" arrivalPos="50.00" arrivalSpeed="15.00" duration="21.10" routeLength="316.10" waitingTime="0.00" waitingCount="0" stopTime="0.00" timeLoss="0.00" rerouteNo="0" devices="tripinfo_NS_320" vType="VehicleA" speedFactor="1.00" vaporized=""/>
    <tripinfo id="SN_300" depart="34.40" departLane="L5_1" departPos="5.10" departSpeed="15.00" departDelay="0.00" arrival="55.50" arrivalLane="L16_1" arrivalPos="50.00" arrivalSpeed="15.00" duration="21.10" routeLength="316.10" waitingTime="0.00" waitingCount="0" stopTime="0.00" timeLoss="0.00" rerouteNo="0" devices="tripinfo_SN_300" vType="VehicleA" speedFactor="1.00" vaporized=""/>
    <tripinfo id="EW_340" depart="35.70" departLane="L9_1" departPos="5.10" departSpeed="15.00" departDelay="0.00" arrival="56.80" arrivalLane="L4_1" arrivalPos="50.00" arrivalSpeed="15.00" duration="21.10" routeLength="316.10" waitingTime="0.00" waitingCount="0" stopTime="0.00" timeLoss="0.00" rerouteNo="0" devices="tripinfo_EW_340" vType="VehicleA" speedFactor="1.00" vaporized=""/>
    <tripinfo id="WS_370" depart="37.00" departLane="L1_0" departPos="5.10" departSpeed="15.00" departDelay="0.00" arrival="56.90" arrivalLane="L8_0" arrivalPos="50.00" arrivalSpeed="15.00" duration="19.90" routeLength="297.92" waitingTime="0.00" waitingCount="0" stopTime="0.00" timeLoss="-0.54" rerouteNo="0" devices="tripinfo_WS_370" vType="VehicleA" speedFactor="1.00" vaporized=""/>
    <tripinfo id="SN_340" depart="35.90" departLane="L5_1" departPos="5.10" departSpeed="15.00" departDelay="0.00" arrival="57.00" arrivalLane="L16_1" arrivalPos="50.00" arrivalSpeed="15.00" duration="21.10" routeLength="316.10" waitingTime="0.00" waitingCount="0" stopTime="0.00" timeLoss="0.00" rerouteNo="0" devices="tripinfo_SN_340" vType="VehicleA" speedFactor="1.00" vaporized=""/>
    <tripinfo id="WE_360" depart="36.40" departLane="L1_1" departPos="5.10" departSpeed="15.00" departDelay="0.00" arrival="57.50" arrivalLane="L12_1" arrivalPos="50.00" arrivalSpeed="15.00" duration="21.10" routeLength="316.10" waitingTime="0.00" waitingCount="0" stopTime="0.00" timeLoss="0.00" rerouteNo="0" devices="tripinfo_WE_360" vType="VehicleA" speedFactor="1.00" vaporized=""/>
    <tripinfo id="SN_350" depart="36.50" departLane="L5_1" departPos="5.10" departSpeed="15.00" departDelay="0.00" arrival="57.60" arrivalLane="L16_1" arrivalPos="50.00" arrivalSpeed="15.00" duration="21.10" routeLength="316.10" waitingTime="0.00" waitingCount="0" stopTime="0.00" timeLoss="0.00" rerouteNo="0" devices="tripinfo_SN_350" vType="VehicleA" speedFactor="1.00" vaporized=""/>
    <tripinfo id="EW_360" depart="38.00" departLane="L9_1" departPos="5.10" departSpeed="15.00" departDelay="0.00" arrival="59.10" arrivalLane="L4_1" arrivalPos="50.00" arrivalSpeed="15.00" duration="21.10" routeLength="316.10" waitingTime="0.00" waitingCount="0" stopTime="0.00" timeLoss="0.00" rerouteNo="0" devices="tripinfo_EW_360" vType="VehicleA" speedFactor="1.00" vaporized=""/>
    <tripinfo id="EW_370" depart="38.60" departLane="L9_1" departPos="5.10" departSpeed="15.00" departDelay="0.00" arrival="59.70" arrivalLane="L4_1" arrivalPos="50.00" arrivalSpeed="15.00" duration="21.10" routeLength="316.10" waitingTime="0.00" waitingCount="0" stopTime="0.00" timeLoss="0.00" rerouteNo="0" devices="tripinfo_EW_370" vType="VehicleA" speedFactor="1.00" vaporized=""/>
    <tripinfo id="NW_400" depart="40.00" departLane="L13_0" departPos="5.10" departSpeed="15.00" departDelay="0.00" arrival="59.90" arrivalLane="L4_0" arrivalPos="50.00" arrivalSpeed="15.00" duration="19.90" routeLength="297.92" waitingTime="0.00" waitingCount="0" stopTime="0.00" timeLoss="-0.54" rerouteNo="0" devices="tripinfo_NW_400" vType="VehicleA" speedFactor="1.00" vaporized=""/>
    <tripinfo id="SE_410" depart="41.00" departLane="L5_0" departPos="5.10" departSpeed="15.00" departDelay="0.00" arrival="60.90" arrivalLane="L12_0" arrivalPos="50.00" arrivalSpeed="15.00" duration="19.90" routeLength="297.92" waitingTime="0.00" waitingCount="0" stopTime="0.00" timeLoss="-0.54" rerouteNo="0" devices="tripinfo_SE_410" vType="VehicleA" speedFactor="1.00" vaporized=""/>
    <tripinfo id="SW_400" depart="40.00" departLane="L5_2" departPos="5.10" departSpeed="15.00" departDelay="0.00" arrival="61.00" arrivalLane="L4_2" arrivalPos="50.00" arrivalSpeed="15.00" duration="21.00" routeLength="314.86" waitingTime="0.00" waitingCount="0" stopTime="0.00" timeLoss="-0.78" rerouteNo="0" devices="tripinfo_SW_400" vType="VehicleA" speedFactor="1.00" vaporized=""/>
    <tripinfo id="SN_410" depart="41.00" departLane="L5_1" departPos="5.10" departSpeed="15.00" departDelay="0.00" arrival="62.10" arrivalLane="L16_1" arrivalPos="50.00" arrivalSpeed="15.00" duration="21.10" routeLength="316.10" waitingTime="0.00" waitingCount="0" stopTime="0.00" timeLoss="0.00" rerouteNo="0" devices="tripinfo_SN_410" vType="VehicleA" speedFactor="1.00" vaporized=""/>
    <tripinfo id="EN_430" depart="43.00" departLane="L9_0" departPos="5.10" departSpeed="15.00" departDelay="0.00" arrival="62.90" arrivalLane="L16_0" arrivalPos="50.00" arrivalSpeed="15.00" duration="19.90" routeLength="297.92" waitingTime="0.00" waitingCount="0" stopTime="0.00" timeLoss="-0.54" rerouteNo="0" devices="tripinfo_EN_430" vType="VehicleA" speedFactor="1.00" vaporized=""/>
    <tripinfo id="EW_420" depart="42.30" departLane="L9_1" departPos="5.10" departSpeed="15.00" departDelay="0.00" arrival="63.40" arrivalLane="L4_1" arrivalPos="50.00" arrivalSpeed="15.00" duration="21.10" routeLength="316.10" waitingTime="0.00" waitingCount="0" stopTime="0.00" timeLoss="0.00" rerouteNo="0" devices="tripinfo_EW_420" vType="VehicleA" speedFactor="1.00" vaporized=""/>
    <tripinfo id="EN_480" depart="48.00" departLane="L9_0" departPos="5.10" departSpeed="15.00" departDelay="0.00" arrival="67.90" arrivalLane="L16_0" arrivalPos="50.00" arrivalSpeed="15.00" duration="19.90" routeLength="297.92" waitingTime="0.00" waitingCount="0" stopTime="0.00" timeLoss="-0.54" rerouteNo="0" devices="tripinfo_EN_480" vType="VehicleA" speedFactor="1.00" vaporized=""/>
    <tripinfo id="SE_480" depart="48.00" departLane="L5_0" departPos="5.10" departSpeed="15.00" departDelay="0.00" arrival="67.90" arrivalLane="L12_0" arrivalPos="50.00" arrivalSpeed="15.00" duration="19.90" routeLength="297.92" waitingTime="0.00" waitingCount="0" stopTime="0.00" timeLoss="-0.54" rerouteNo="0" devices="tripinfo_SE_480" vType="VehicleA" speedFactor="1.00" vaporized=""/>
    <tripinfo id="NW_490" depart="49.00" departLane="L13_0" departPos="5.10" departSpeed="15.00" departDelay="0.00" arrival="68.90" arrivalLane="L4_0" arrivalPos="50.00" arrivalSpeed="15.00" duration="19.90" routeLength="297.92" waitingTime="0.00" waitingCount="0" stopTime="0.00" timeLoss="-0.54" rerouteNo="0" devices="tripinfo_NW_490" vType="VehicleA" speedFactor="1.00" vaporized=""/>
    <tripinfo id="NS_480" depart="48.00" departLane="L13_1" departPos="5.10" departSpeed="15.00" departDelay="0.00" arrival="69.10" arrivalLane="L8_1" arrivalPos="50.00" arrivalSpeed="15.00" duration="21.10" routeLength="316.10" waitingTime="0.00" waitingCount="0" stopTime="0.00" timeLoss="0.00" rerouteNo="0" devices="tripinfo_NS_480" vType="VehicleA" speedFactor="1.00" vaporized=""/>
    <tripinfo id="NW_500" depart="50.00" departLane="L13_0" departPos="5.10" departSpeed="15.00" departDelay="0.00" arrival="69.90" arrivalLane="L4_0" arrivalPos="50.00" arrivalSpeed="15.00" duration="19.90" routeLength="297.92" waitingTime="0.00" waitingCount="0" stopTime="0.00" timeLoss="-0.54" rerouteNo="0" devices="tripinfo_NW_500" vType="VehicleA" speedFactor="1.00" vaporized=""/>
    <tripinfo id="NE_490" depart="49.10" departLane="L13_2" departPos="5.10" departSpeed="15.00" departDelay="0.00" arrival="70.10" arrivalLane="L12_2" arrivalPos="50.00" arrivalSpeed="15.00" duration="21.00" routeLength="314.86" waitingTime="0.00" waitingCount="0" stopTime="0.00" timeLoss="-0.78" rerouteNo="0" devices="tripinfo_NE_490" vType="VehicleA" speedFactor="1.00" vaporized=""/>
    <tripinfo id="EW_490" depart="49.40" departLane="L9_1" departPos="5.10" departSpeed="15.00" departDelay="0.00" arrival="70.50" arrivalLane="L4_1" arrivalPos="50.00" arrivalSpeed="15.00" duration="21.10" routeLength="316.10" waitingTime="0.00" waitingCount="0" stopTime="0.00" timeLoss="0.00" rerouteNo="0" devices="tripinfo_EW_490" vType="VehicleA" speedFactor="1.00" vaporized=""/>
    <tripinfo id="EW_500" depart="50.90" departLane="L9_1" departPos="5.10" departSpeed="15.00" departDelay="0.00" arrival="72.00" arrivalLane="L4_1" arrivalPos="50.00" arrivalSpeed="15.00" duration="21.10" routeLength="316.10" waitingTime="0.00" waitingCount="0" stopTime="0.00" timeLoss="0.00" rerouteNo="0" devices="tripinfo_EW_500" vType="VehicleA" speedFactor="1.00" vaporized=""/>
    <tripinfo id="NS_500" depart="51.00" departLane="L13_1" departPos="5.10" departSpeed="15.00" departDelay="0.00" arrival="72.10" arrivalLane="L8_1" arrivalPos="50.00" arrivalSpeed="15.00" duration="21.10" routeLength="316.10" waitingTime="0.00" waitingCount="0" stopTime="0.00" timeLoss="0.00" rerouteNo="0" devices="tripinfo_NS_500" vType="VehicleA" speedFactor="1.00" vaporized=""/>
    <tripinfo id="NE_510" depart="51.90" departLane="L13_2" departPos="5.10" departSpeed="15.00" departDelay="0.00" arrival="72.90" arrivalLane="L12_2" arrivalPos="50.00" arrivalSpeed="15.00" duration="21.00" routeLength="314.86" waitingTime="0.00" waitingCount="0" stopTime="0.00" timeLoss="-0.78" rerouteNo="0" devices="tripinfo_NE_510" vType="VehicleA" speedFactor="1.00" vaporized=""/>
    <tripinfo id="NW_540" depart="54.00" departLane="L13_0" departPos="5.10" departSpeed="15.00" departDelay="0.00" arrival="73.90" arrivalLane="L4_0" arrivalPos="50.00" arrivalSpeed="15.00" duration="19.90" routeLength="297.92" waitingTime="0.00" waitingCount="0" stopTime="0.00" timeLoss="-0.54" rerouteNo="0" devices="tripinfo_NW_540" vType="VehicleA" speedFactor="1.00" vaporized=""/>
    <tripinfo id="SN_530" depart="53.00" departLane="L5_1" departPos="5.10" departSpeed="15.00" departDelay="0.00" arrival="74.10" arrivalLane="L16_1" arrivalPos="50.00" arrivalSpeed="15.00" duration="21.10" routeLength="316.10" waitingTime="0.00" waitingCount="0" stopTime="0.00" timeLoss="0.00" rerouteNo="0" devices="tripinfo_SN_530" vType="VehicleA" speedFactor="1.00" vaporized=""/>
    <tripinfo id="NS_530" depart="53.40" departLane="L13_1" departPos="5.10" departSpeed="15.00" departDelay="0.00" arrival="74.50" arrivalLane="L8_1" arrivalPos="50.00" arrivalSpeed="15.00" duration="21.10" routeLength="316.10" waitingTime="0.00" waitingCount="0" stopTime="0.00" timeLoss="0.00" rerouteNo="0" devices="tripinfo_NS_530" vType="VehicleA" speedFactor="1.00" vaporized=""/>
    <tripinfo id="SE_560" depart="56.00" departLane="L5_0" departPos="5.10" departSpeed="15.00" departDelay="0.00" arrival="75.90" arrivalLane="L12_0" arrivalPos="50.00" arrivalSpeed="15.00" duration="19.90" routeLength="297.92" waitingTime="0.00" waitingCount="0" stopTime="0.00" timeLoss="-0.54" rerouteNo="0" devices="tripinfo_SE_560" vType="VehicleA" speedFactor="1.00" vaporized=""/>
    <tripinfo id="EW_530" depart="55.20" departLane="L9_1" departPos="5.10" departSpeed="15.00" departDelay="0.00" arrival="76.30" arrivalLane="L4_1" arrivalPos="50.00" arrivalSpeed="15.00" duration="21.10" routeLength="316.10" waitingTime="0.00" waitingCount="0" stopTime="0.00" timeLoss="0.00" rerouteNo="0" devices="tripinfo_EW_530" vType="VehicleA" speedFactor="1.00" vaporized=""/>